<?xml version="1.0"?>
<VTKFile type="UnstructuredGrid"  version="0.1"  >
<UnstructuredGrid>
<Piece  NumberOfPoints="22726" NumberOfCells="45000">
<Points>
<DataArray  type="Float64"  NumberOfComponents="3"  format="ascii">0 0 0  0.02666666666666667 0 0  0.05333333333333334 0 0  0.08 0 0  0.1066666666666667 0 0  0.1333333333333333 0 0  0.16 0 0  0.1866666666666667 0 0  0.2133333333333333 0 0  0.24 0 0  0.2666666666666667 0 0  0.2933333333333333 0 0  0.32 0 0  0.3466666666666667 0 0  0.3733333333333334 0 0  0.4 0 0  0.4266666666666667 0 0  0.4533333333333333 0 0  0.48 0 0  0.5066666666666667 0 0  0.5333333333333333 0 0  0.5600000000000001 0 0  0.5866666666666667 0 0  0.6133333333333333 0 0  0.64 0 0  0.6666666666666666 0 0  0.6933333333333334 0 0  0.72 0 0  0.7466666666666667 0 0  0.7733333333333333 0 0  0.8 0 0  0.8266666666666667 0 0  0.8533333333333334 0 0  0.88 0 0  0.9066666666666666 0 0  0.9333333333333333 0 0  0.96 0 0  0.9866666666666667 0 0  1.013333333333333 0 0  1.04 0 0  1.066666666666667 0 0  1.093333333333333 0 0  1.12 0 0  1.146666666666667 0 0  1.173333333333333 0 0  1.2 0 0  1.226666666666667 0 0  1.253333333333333 0 0  1.28 0 0  1.306666666666667 0 0  1.333333333333333 0 0  1.36 0 0  1.386666666666667 0 0  1.413333333333333 0 0  1.44 0 0  1.466666666666667 0 0  1.493333333333333 0 0  1.52 0 0  1.546666666666667 0 0  1.573333333333333 0 0  1.6 0 0  1.626666666666667 0 0  1.653333333333333 0 0  1.68 0 0  1.706666666666667 0 0  1.733333333333333 0 0  1.76 0 0  1.786666666666667 0 0  1.813333333333333 0 0  1.84 0 0  1.866666666666667 0 0  1.893333333333333 0 0  1.92 0 0  1.946666666666667 0 0  1.973333333333333 0 0  2 0 0  2.026666666666667 0 0  2.053333333333333 0 0  2.08 0 0  2.106666666666666 0 0  2.133333333333333 0 0  2.16 0 0  2.186666666666667 0 0  2.213333333333333 0 0  2.24 0 0  2.266666666666667 0 0  2.293333333333333 0 0  2.32 0 0  2.346666666666667 0 0  2.373333333333334 0 0  2.4 0 0  2.426666666666667 0 0  2.453333333333333 0 0  2.48 0 0  2.506666666666667 0 0  2.533333333333333 0 0  2.56 0 0  2.586666666666666 0 0  2.613333333333333 0 0  2.64 0 0  2.666666666666667 0 0  2.693333333333333 0 0  2.72 0 0  2.746666666666667 0 0  2.773333333333333 0 0  2.8 0 0  2.826666666666667 0 0  2.853333333333333 0 0  2.88 0 0  2.906666666666667 0 0  2.933333333333333 0 0  2.96 0 0  2.986666666666667 0 0  3.013333333333333 0 0  3.04 0 0  3.066666666666667 0 0  3.093333333333333 0 0  3.12 0 0  3.146666666666667 0 0  3.173333333333333 0 0  3.2 0 0  3.226666666666667 0 0  3.253333333333333 0 0  3.28 0 0  3.306666666666667 0 0  3.333333333333333 0 0  3.36 0 0  3.386666666666667 0 0  3.413333333333334 0 0  3.44 0 0  3.466666666666667 0 0  3.493333333333333 0 0  3.52 0 0  3.546666666666667 0 0  3.573333333333333 0 0  3.6 0 0  3.626666666666666 0 0  3.653333333333333 0 0  3.68 0 0  3.706666666666667 0 0  3.733333333333333 0 0  3.76 0 0  3.786666666666667 0 0  3.813333333333333 0 0  3.84 0 0  3.866666666666667 0 0  3.893333333333334 0 0  3.92 0 0  3.946666666666667 0 0  3.973333333333333 0 0  4 0 0  0 0.01333333333333333 0  0.02666666666666667 0.01333333333333333 0  0.05333333333333334 0.01333333333333333 0  0.08 0.01333333333333333 0  0.1066666666666667 0.01333333333333333 0  0.1333333333333333 0.01333333333333333 0  0.16 0.01333333333333333 0  0.1866666666666667 0.01333333333333333 0  0.2133333333333333 0.01333333333333333 0  0.24 0.01333333333333333 0  0.2666666666666667 0.01333333333333333 0  0.2933333333333333 0.01333333333333333 0  0.32 0.01333333333333333 0  0.3466666666666667 0.01333333333333333 0  0.3733333333333334 0.01333333333333333 0  0.4 0.01333333333333333 0  0.4266666666666667 0.01333333333333333 0  0.4533333333333333 0.01333333333333333 0  0.48 0.01333333333333333 0  0.5066666666666667 0.01333333333333333 0  0.5333333333333333 0.01333333333333333 0  0.5600000000000001 0.01333333333333333 0  0.5866666666666667 0.01333333333333333 0  0.6133333333333333 0.01333333333333333 0  0.64 0.01333333333333333 0  0.6666666666666666 0.01333333333333333 0  0.6933333333333334 0.01333333333333333 0  0.72 0.01333333333333333 0  0.7466666666666667 0.01333333333333333 0  0.7733333333333333 0.01333333333333333 0  0.8 0.01333333333333333 0  0.8266666666666667 0.01333333333333333 0  0.8533333333333334 0.01333333333333333 0  0.88 0.01333333333333333 0  0.9066666666666666 0.01333333333333333 0  0.9333333333333333 0.01333333333333333 0  0.96 0.01333333333333333 0  0.9866666666666667 0.01333333333333333 0  1.013333333333333 0.01333333333333333 0  1.04 0.01333333333333333 0  1.066666666666667 0.01333333333333333 0  1.093333333333333 0.01333333333333333 0  1.12 0.01333333333333333 0  1.146666666666667 0.01333333333333333 0  1.173333333333333 0.01333333333333333 0  1.2 0.01333333333333333 0  1.226666666666667 0.01333333333333333 0  1.253333333333333 0.01333333333333333 0  1.28 0.01333333333333333 0  1.306666666666667 0.01333333333333333 0  1.333333333333333 0.01333333333333333 0  1.36 0.01333333333333333 0  1.386666666666667 0.01333333333333333 0  1.413333333333333 0.01333333333333333 0  1.44 0.01333333333333333 0  1.466666666666667 0.01333333333333333 0  1.493333333333333 0.01333333333333333 0  1.52 0.01333333333333333 0  1.546666666666667 0.01333333333333333 0  1.573333333333333 0.01333333333333333 0  1.6 0.01333333333333333 0  1.626666666666667 0.01333333333333333 0  1.653333333333333 0.01333333333333333 0  1.68 0.01333333333333333 0  1.706666666666667 0.01333333333333333 0  1.733333333333333 0.01333333333333333 0  1.76 0.01333333333333333 0  1.786666666666667 0.01333333333333333 0  1.813333333333333 0.01333333333333333 0  1.84 0.01333333333333333 0  1.866666666666667 0.01333333333333333 0  1.893333333333333 0.01333333333333333 0  1.92 0.01333333333333333 0  1.946666666666667 0.01333333333333333 0  1.973333333333333 0.01333333333333333 0  2 0.01333333333333333 0  2.026666666666667 0.01333333333333333 0  2.053333333333333 0.01333333333333333 0  2.08 0.01333333333333333 0  2.106666666666666 0.01333333333333333 0  2.133333333333333 0.01333333333333333 0  2.16 0.01333333333333333 0  2.186666666666667 0.01333333333333333 0  2.213333333333333 0.01333333333333333 0  2.24 0.01333333333333333 0  2.266666666666667 0.01333333333333333 0  2.293333333333333 0.01333333333333333 0  2.32 0.01333333333333333 0  2.346666666666667 0.01333333333333333 0  2.373333333333334 0.01333333333333333 0  2.4 0.01333333333333333 0  2.426666666666667 0.01333333333333333 0  2.453333333333333 0.01333333333333333 0  2.48 0.01333333333333333 0  2.506666666666667 0.01333333333333333 0  2.533333333333333 0.01333333333333333 0  2.56 0.01333333333333333 0  2.586666666666666 0.01333333333333333 0  2.613333333333333 0.01333333333333333 0  2.64 0.01333333333333333 0  2.666666666666667 0.01333333333333333 0  2.693333333333333 0.01333333333333333 0  2.72 0.01333333333333333 0  2.746666666666667 0.01333333333333333 0  2.773333333333333 0.01333333333333333 0  2.8 0.01333333333333333 0  2.826666666666667 0.01333333333333333 0  2.853333333333333 0.01333333333333333 0  2.88 0.01333333333333333 0  2.906666666666667 0.01333333333333333 0  2.933333333333333 0.01333333333333333 0  2.96 0.01333333333333333 0  2.986666666666667 0.01333333333333333 0  3.013333333333333 0.01333333333333333 0  3.04 0.01333333333333333 0  3.066666666666667 0.01333333333333333 0  3.093333333333333 0.01333333333333333 0  3.12 0.01333333333333333 0  3.146666666666667 0.01333333333333333 0  3.173333333333333 0.01333333333333333 0  3.2 0.01333333333333333 0  3.226666666666667 0.01333333333333333 0  3.253333333333333 0.01333333333333333 0  3.28 0.01333333333333333 0  3.306666666666667 0.01333333333333333 0  3.333333333333333 0.01333333333333333 0  3.36 0.01333333333333333 0  3.386666666666667 0.01333333333333333 0  3.413333333333334 0.01333333333333333 0  3.44 0.01333333333333333 0  3.466666666666667 0.01333333333333333 0  3.493333333333333 0.01333333333333333 0  3.52 0.01333333333333333 0  3.546666666666667 0.01333333333333333 0  3.573333333333333 0.01333333333333333 0  3.6 0.01333333333333333 0  3.626666666666666 0.01333333333333333 0  3.653333333333333 0.01333333333333333 0  3.68 0.01333333333333333 0  3.706666666666667 0.01333333333333333 0  3.733333333333333 0.01333333333333333 0  3.76 0.01333333333333333 0  3.786666666666667 0.01333333333333333 0  3.813333333333333 0.01333333333333333 0  3.84 0.01333333333333333 0  3.866666666666667 0.01333333333333333 0  3.893333333333334 0.01333333333333333 0  3.92 0.01333333333333333 0  3.946666666666667 0.01333333333333333 0  3.973333333333333 0.01333333333333333 0  4 0.01333333333333333 0  0 0.02666666666666667 0  0.02666666666666667 0.02666666666666667 0  0.05333333333333334 0.02666666666666667 0  0.08 0.02666666666666667 0  0.1066666666666667 0.02666666666666667 0  0.1333333333333333 0.02666666666666667 0  0.16 0.02666666666666667 0  0.1866666666666667 0.02666666666666667 0  0.2133333333333333 0.02666666666666667 0  0.24 0.02666666666666667 0  0.2666666666666667 0.02666666666666667 0  0.2933333333333333 0.02666666666666667 0  0.32 0.02666666666666667 0  0.3466666666666667 0.02666666666666667 0  0.3733333333333334 0.02666666666666667 0  0.4 0.02666666666666667 0  0.4266666666666667 0.02666666666666667 0  0.4533333333333333 0.02666666666666667 0  0.48 0.02666666666666667 0  0.5066666666666667 0.02666666666666667 0  0.5333333333333333 0.02666666666666667 0  0.5600000000000001 0.02666666666666667 0  0.5866666666666667 0.02666666666666667 0  0.6133333333333333 0.02666666666666667 0  0.64 0.02666666666666667 0  0.6666666666666666 0.02666666666666667 0  0.6933333333333334 0.02666666666666667 0  0.72 0.02666666666666667 0  0.7466666666666667 0.02666666666666667 0  0.7733333333333333 0.02666666666666667 0  0.8 0.02666666666666667 0  0.8266666666666667 0.02666666666666667 0  0.8533333333333334 0.02666666666666667 0  0.88 0.02666666666666667 0  0.9066666666666666 0.02666666666666667 0  0.9333333333333333 0.02666666666666667 0  0.96 0.02666666666666667 0  0.9866666
[...]
<PointData  Vectors="f_9"> 
<DataArray  type="Float64"  Name="f_9"  NumberOfComponents="3" format="ascii">0.0000000000000000e+00 0.0000000000000000e+00 0.0000000000000000e+00  -8.3703404702437567e-01 -7.1782630239967349e-01 0.0000000000000000e+00  -1.4390865278926741e+00 -1.1198497716802602e+00 0.0000000000000000e+00  -1.9936060498136279e+00 -1.4603783890291901e+00 0.0000000000000000e+00  -2.5334130401996555e+00 -1.7685809543975115e+00 0.0000000000000000e+00  -3.0659877932628006e+00 -2.0685337888524975e+00 0.0000000000000000e+00  -3.5952969834968562e+00 -2.3713497324095001e+00 0.0000000000000000e+00  -4.1228994262303233e+00 -2.6844616155905738e+00 0.0000000000000000e+00  -4.6494583630818083e+00 -3.0127384788604985e+00 0.0000000000000000e+00  -5.1751504314660730e+00 -3.3595792914653422e+00 0.0000000000000000e+00  -5.6999116333578295e+00 -3.7273999260026183e+00 0.0000000000000000e+00  -6.2235548231007467e+00 -4.1179447929629713e+00 0.0000000000000000e+00  -6.7458358221112817e+00 -4.5324797176245770e+00 0.0000000000000000e+00  -7.2664901757334475e+00 -4.9719209839613479e+00 0.0000000000000000e+00  -7.7852540965223298e+00 -5.4369242769863657e+00 0.0000000000000000e+00  -8.3018761679231901e+00 -5.9279480601237049e+00 0.0000000000000000e+00  -8.8161235634695778e+00 -6.4452998368936427e+00 0.0000000000000000e+00  -9.3277849317884218e+00 -6.9891706048182618e+00 0.0000000000000000e+00  -9.8366712420639431e+00 -7.5596609251273890e+00 0.0000000000000000e+00  -1.0342615389008481e+01 -8.1568008974693029e+00 0.0000000000000000e+00  -1.0845471062945824e+01 -8.7805656135132644e+00 0.0000000000000000e+00  -1.1345111210219574e+01 -9.4308872000023527e+00 0.0000000000000000e+00  -1.1841426295174630e+01 -1.0107664252937195e+01 0.0000000000000000e+00  -1.2334322501073615e+01 -1.0810769253465180e+01 0.0000000000000000e+00  -1.2823719958373939e+01 -1.1540054408335934e+01 0.0000000000000000e+00  -1.3309551055820330e+01 -1.2295356252162659e+01 0.0000000000000000e+00  -1.3791758867325770e+01 -1.3076499271670695e+01 0.0000000000000000e+00  -1.4270295712192240e+01 -1.3883298754845388e+01 0.0000000000000000e+00  -1.4745121855657354e+01 -1.4715563024613019e+01 0.0000000000000000e+00  -1.5216204349587814e+01 -1.5573095183493145e+01 0.0000000000000000e+00  -1.5683516008390081e+01 -1.6455694469870586e+01 0.0000000000000000e+00  -1.6147034512187730e+01 -1.7363157306276968e+01 0.0000000000000000e+00  -1.6606741627537907e+01 -1.8295278104023634e+01 0.0000000000000000e+00  -1.7062622535070567e+01 -1.9251849875717191e+01 0.0000000000000000e+00  -1.7514665253180969e+01 -2.0232664696919908e+01 0.0000000000000000e+00  -1.7962860147087959e+01 -2.1237514049947524e+01 0.0000000000000000e+00  -1.8407199513051005e+01 -2.2266189076128924e+01 0.0000000000000000e+00  -1.8847677228206575e+01 -2.3318480757468393e+01 0.0000000000000000e+00  -1.9284288457259862e+01 -2.4394180044306712e+01 0.0000000000000000e+00  -1.9717029408095190e+01 -2.5493077942072667e+01 0.0000000000000000e+00  -2.0145897129201096e+01 -2.6614965567401995e+01 0.0000000000000000e+00  -2.0570889342618823e+01 -2.7759634181637168e+01 0.0000000000000000e+00  -2.0992004306892944e+01 -2.8926875207916062e+01 0.0000000000000000e+00  -2.1409240705218746e+01 -3.0116480236619214e+01 0.0000000000000000e+00  -2.1822597554634740e+01 -3.1328241022806093e+01 0.0000000000000000e+00  -2.2232074132699509e+01 -3.2561949478369925e+01 0.0000000000000000e+00  -2.2637669918618791e+01 -3.3817397660940962e+01 0.0000000000000000e+00  -2.3039384546251846e+01 -3.5094377761020667e+01 0.0000000000000000e+00  -2.3437217766832859e+01 -3.6392682088406133e+01 0.0000000000000000e+00  -2.3831169419595625e+01 -3.7712103058642278e+01 0.0000000000000000e+00  -2.4221239408791696e+01 -3.9052433179997365e+01 0.0000000000000000e+00  -2.4607427685853192e+01 -4.0413465041272623e+01 0.0000000000000000e+00  -2.4989734235670333e+01 -4.1794991300625860e+01 0.0000000000000000e+00  -2.5368159066140290e+01 -4.3196804675491229e+01 0.0000000000000000e+00  -2.5742702200298769e+01 -4.4618697933609496e+01 0.0000000000000000e+00  -2.6113363670478414e+01 -4.6060463885135832e+01 0.0000000000000000e+00  -2.6480143514043487e+01 -4.7521895375767748e+01 0.0000000000000000e+00  -2.6843041770341245e+01 -4.9002785280808851e+01 0.0000000000000000e+00  -2.7202058478582948e+01 -5.0502926500086573e+01 0.0000000000000000e+00  -2.7557193676427101e+01 -5.2022111953627110e+01 0.0000000000000000e+00  -2.7908447399086832e+01 -5.3560134578004025e+01 0.0000000000000000e+00  -2.8255819678822100e+01 -5.5116787323271076e+01 0.0000000000000000e+00  -2.8599310544708548e+01 -5.6691863150405069e+01 0.0000000000000000e+00  -2.8938920022600133e+01 -5.8285155029183180e+01 0.0000000000000000e+00  -2.9274648135223917e+01 -5.9896455936432005e+01 0.0000000000000000e+00  -2.9606494902358154e+01 -6.1525558854592298e+01 0.0000000000000000e+00  -2.9934460341061047e+01 -6.3172256770548366e+01 0.0000000000000000e+00  -3.0258544465922494e+01 -6.4836342674678150e+01 0.0000000000000000e+00  -3.0578747289322909e+01 -6.6517609560087280e+01 0.0000000000000000e+00  -3.0895068821685665e+01 -6.8215850421996549e+01 0.0000000000000000e+00  -3.1207509071714913e+01 -6.9930858257252268e+01 0.0000000000000000e+00  -3.1516068046613967e+01 -7.1662426063940899e+01 0.0000000000000000e+00  -3.1820745752279812e+01 -7.3410346841085129e+01 0.0000000000000000e+00  -3.2121542193474546e+01 -7.5174413588404974e+01 0.0000000000000000e+00  -3.2418457373971663e+01 -7.6954419306133929e+01 0.0000000000000000e+00  -3.2711491296677842e+01 -7.8750156994876136e+01 0.0000000000000000e+00  -3.3000643963729928e+01 -8.0561419655494817e+01 0.0000000000000000e+00  -3.3285915376569321e+01 -8.2388000289024433e+01 0.0000000000000000e+00  -3.3567305535993412e+01 -8.4229691896598936e+01 0.0000000000000000e+00  -3.3844814442185225e+01 -8.6086287479390833e+01 0.0000000000000000e+00  -3.4118442094720635e+01 -8.7957580038555818e+01 0.0000000000000000e+00  -3.4388188492554512e+01 -8.9843362575172534e+01 0.0000000000000000e+00  -3.4654053633984596e+01 -9.1743428090181439e+01 0.0000000000000000e+00  -3.4916037516593342e+01 -9.3657569584303346e+01 0.0000000000000000e+00  -3.5174140137168202e+01 -9.5585580057943787e+01 0.0000000000000000e+00  -3.5428361491597840e+01 -9.7527252511070401e+01 0.0000000000000000e+00  -3.5678701574745432e+01 -9.9482379943050503e+01 0.0000000000000000e+00  -3.5925160380298202e+01 -1.0145075535244968e+02 0.0000000000000000e+00  -3.6167737900592833e+01 -1.0343217173676604e+02 0.0000000000000000e+00  -3.6406434126420557e+01 -1.0542642209209427e+02 0.0000000000000000e+00  -3.6641249046810557e+01 -1.0743329941270578e+02 0.0000000000000000e+00  -3.6872182648797747e+01 -1.0945259669050940e+02 0.0000000000000000e+00  -3.7099234917183772e+01 -1.1148410691438538e+02 0.0000000000000000e+00  -3.7322405834297435e+01 -1.1352762306935682e+02 0.0000000000000000e+00  -3.7541695379772506e+01 -1.1558293813556126e+02 0.0000000000000000e+00  -3.7757103530363665e+01 -1.1764984508699291e+02 0.0000000000000000e+00  -3.7968630259829020e+01 -1.1972813688996278e+02 0.0000000000000000e+00  -3.8176275538921537e+01 -1.2181760650122783e+02 0.0000000000000000e+00  -3.8380039335540637e+01 -1.2391804686573636e+02 0.0000000000000000e+00  -3.8579921615116490e+01 -1.2602925091391297e+02 0.0000000000000000e+00  -3.8775922341319109e+01 -1.2815101155842882e+02 0.0000000000000000e+00  -3.8968041477212417e+01 -1.3028312169035726e+02 0.0000000000000000e+00  -3.9156278987010204e+01 -1.3242537417465255e+02 0.0000000000000000e+00  -3.9340634838626833e+01 -1.3457756184485885e+02 0.0000000000000000e+00  -3.9521109007275967e+01 -1.3673947749695890e+02 0.0000000000000000e+00  -3.9697701480429970e+01 -1.3891091388230026e+02 0.0000000000000000e+00  -3.9870412264530771e+01 -1.4109166369951811e+02 0.0000000000000000e+00  -4.0039241393944302e+01 -1.4328151958542298e+02 0.0000000000000000e+00  -4.0204188942756922e+01 -1.4548027410485790e+02 0.0000000000000000e+00  -4.0365255040157045e+01 -1.4768771973955398e+02 0.0000000000000000e+00  -4.0522439890311915e+01 -1.4990364887614220e+02 0.0000000000000000e+00  -4.0675743797837548e+01 -1.5212785379355637e+02 0.0000000000000000e+00  -4.0825167200202323e+01 -1.5436012665021730e+02 0.0000000000000000e+00  -4.0970710708671390e+01 -1.5660025947162390e+02 0.0000000000000000e+00  -4.1112375159719477e+01 -1.5884804413921063e+02 0.0000000000000000e+00  -4.1250161679212468e+01 -1.6110327238172428e+02 0.0000000000000000e+00  -4.1384071762079074e+01 -1.6336573577083942e+02 0.0000000000000000e+00  -4.1514107370688265e+01 -1.6563522572330621e+02 0.0000000000000000e+00  -4.1640271055698797e+01 -1.6791153351276404e+02 0.0000000000000000e+00  -4.1762566103771952e+01 -1.7019445029527870e+02 0.0000000000000000e+00  -4.1880996717239412e+01 -1.7248376715398450e+02 0.0000000000000000e+00  -4.1995568231579583e+01 -1.7477927516976320e+02 0.0000000000000000e+00  -4.2106287377404620e+01 -1.7708076552691486e+02 0.0000000000000000e+00  -4.2213162594562228e+01 -1.7938802966530733e+02 0.0000000000000000e+00  -4.2316204406916469e+01 -1.8170085949365210e+02 0.0000000000000000e+00  -4.2415425867375568e+01 -1.8401904768252626e+02 0.0000000000000000e+00  -4.2510843083751006e+01 -1.8634238806079162e+02 0.0000000000000000e+00  -4.2602475837038412e+01 -1.8867067614531646e+02 0.0000000000000000e+00  -4.2690348304664404e+01 -1.9100370984192858e+02 0.0000000000000000e+00  -4.2774489902071032e+01 -1.9334129036565855e+02 0.0000000000000000e+00  -4.2854936256658391e+01 -1.9568322344132804e+02 0.0000000000000000e+00  -4.2931730328460610e+01 -1.9802932086245318e+02 0.0000000000000000e+00  -4.3004923691838030e+01 -2.0037940250850420e+02 0.0000000000000000e+00  -4.3074577991736270e+01 -2.0273329895006677e+02 0.0000000000000000e+00  -4.3140766586364876e+01 -2.0509085481129620e+02 0.0000000000000000e+00  -4.3203576385048791e+01 -2.0745193311411535e+02 0.0000000000000000e+00  -4.3263109884697371e+01 -2.0981642090645153e+02 0.0000000000000000e+00  -4.3319487399582748e+01 -2.1218423658933565e+02 0.0000000000000000e+00  -4.3372849464708231e+01 -2.1455533952545497e+02 0.0000000000000000e+00  -4.3423359368882345e+01 -2.1692974276925574e+02 0.0000000000000000e+00  -4.3471205732266299e+01 -2.1930753016883995e+02 0.0000000000000000e+00  -4.3516604968168693e+01 -2.2168887976757543e+02 0.0000000000000000e+00  -4.3559803332748437e+01 -2.2407409661834691e+02 0.0000000000000000e+00  -4.3601077967198378e+01 -2.2646366024707436e+02 0.0000000000000000e+00  -4.3640735824872770e+01 -2.2885829641806515e+02 0.0000000000000000e+00  -4.3679107412616290e+01 -2.3125909084557728e+02 0.0000000000000000e+00  -4.3716530866194873e+01 -2.3366768897248105e+02 0.0000000000000000e+00  -4.3753294690886591e+01 -2.3608665475349125e+02 0.0000000000000000e+00  -4.3789528275877203e+01 -2.3852040368855128e+02 0.0000000000000000e+00  -4.3824220763623472e+01 -2.4097730072922232e+02 0.0000000000000000e+00  -4.3843981303095163e+01 -2.4348051901822450e+02 0.0000000000000000e+00  0.0000000000000000e+00 0.0000000000000000e+00 0.0000000000000000e+00  -6.2537640521962790e-01 -5.5746431455407952e-01 0.0000000000000000e+00  -1.2679254733300478e+00 -9.9910722410345576e-01 0.0000000000000000e+00  -1.8390839331865008e+00 -1.3421057608710740e+00 0.0000000000000000e+00  -2.3847283584828403e+00 -1.6538231557756944e+00 0.0000000000000000e+00  -2.9171791994702438e+00 -1.9551175226521269e+00 0.0000000000000000e+00  -3.4424091378651638e+00 -2.2587619275914381e+00 0.0000000000000000e+00  -3.9632794859822171e+00 -2.5723654130678195e+00 0.0000000000000000e+00  -4.4812361914864649e+00 -2.9009986859136037e+00 0.0000000000000000e+00  -4.9969823983408199e+00 -3.2481451742027625e+00 0.0000000000000000e+00  -5.5108173167374961e+00 -3.6162706145670853e+00 0.0000000000000000e+00  -6.0228141832947388e+00 -4.0071453410787763e+00 0.0000000000000000e+00  -6.5329199859871832e+00 -4.4220484876674186e+00 0.0000000000000000e+00  -7.0410134675540412e+00 -4.8619020945117368e+00 0.0000000000000000e+00  -7.5469397287280087e+00 -5.3273631936101058e+00 0.0000000000000000e+00  -8.0505311180320689e+00 -5.8188890131043172e+00 0.0000000000000000e+00  -8.5516198084200425e+00 -6.3367843659125560e+00 0.0000000000000000e+00  -9.0500452057022809e+00 -6.8812368033753124e+00 0.0000000000000000e+00  -9.5456580873086576e+00 -7.4523431244587703e+00 0.0000000000000000e+00  -1.0038322653311758e+01 -8.0501296253687773e+00 0.0000000000000000e+00  -1.0527917244264478e+01 -8.6745677221151247e+00 0.0000000000000000e+00  -1.1014334217405091e+01 -9.3255860932041905e+00 0.0000000000000000e+00  -1.1497479306283442e+01 -1.0003080167700688e+01 0.0000000000000000e+00  -1.1977270680798766e+01 -1.0706919564725101e+01 0.0000000000000000e+00  -1.2453637852964651e+01 -1.1436953937636298e+01 0.0000000000000000e+00  -1.2926520525302410e+01 -1.2193017567212838e+01 0.0000000000000000e+00  -1.3395867445585747e+01 -1.2974932968881955e+01 0.0000000000000000e+00  -1.3861635308686356e+01 -1.3782513720277121e+01 0.0000000000000000e+00  -1.4323787730273967e+01 -1.4615566671086805e+01 0.0000000000000000e+00  -1.4782294305983282e+01 -1.5473893663230358e+01 0.0000000000000000e+00  -1.5237129761947404e+01 -1.6357292863084535e+01 0.0000000000000000e+00  -1.5688273197333391e+01 -1.7265559786852396e+01 0.0000000000000000e+00  -1.6135707416012419e+01 -1.8198488083846669e+01 0.0000000000000000e+00  -1.6579418342265381e+01 -1.9155870129457675e+01 0.0000000000000000e+00  -1.7019394514107550e+01 -2.0137497469166494e+01 0.0000000000000000e+00  -1.7455626647153643e+01 -2.1143161146600089e+01 0.0000000000000000e+00  -1.7888107261743613e+01 -2.2172651941889121e+01 0.0000000000000000e+00  -1.8316830366166077e+01 -2.3225760541165108e+01 0.0000000000000000e+00  -1.8741791189144717e+01 -2.4302277653660532e+01 0.0000000000000000e+00  -1.9162985955213522e+01 -2.5401994089360468e+01 0.0000000000000000e+00  -1.9580411697141308e+01 -2.6524700807332749e+01 0.0000000000000000e+00  -1.9994066100134301e+01 -2.7670188942604206e+01 0.0000000000000000e+00  -2.0403947373114903e+01 -2.8838249817650151e+01 0.0000000000000000e+00  -2.0810054142927868e+01 -3.0028674943135726e+01 0.0000000000000000e+00  -2.1212385367846050e+01 -3.1241256011418908e+01 0.0000000000000000e+00  -2.1610940267229942e+01 -3.2475784885435850e+01 0.0000000000000000e+00  -2.2005718264634115e+01 -3.3732053584900250e+01 0.0000000000000000e+00  -2.2396718942046856e+01 -3.5009854271214145e+01 0.0000000000000000e+00  -2.2783942003298197e+01 -3.6308979232072311e+01 0.0000000000000000e+00  -2.3167387244979292e+01 -3.7629220866434281e+01 0.0000000000000000e+00  -2.3547054533481116e+01 -3.8970371670301034e+01 0.0000000000000000e+00  -2.3922943786992981e+01 -4.0332224223560118e+01 0.0000000000000000e+00  -2.4295054961498209e+01 -4.1714571178036913e+01 0.0000000000000000e+00  -2.4663388039972226e+01 -4.3117205246801070e+01 0.0000000000000000e+00  -2.5027943024130870e+01 -4.4539919194711068e+01 0.0000000000000000e+00  -2.5388719928197020e+01 -4.5982505830141847e+01 0.0000000000000000e+00  -2.5745718774253334e+01 -4.7444757997815927e+01 0.0000000000000000e+00  -2.6098939588831794e+01 -4.8926468572638775e+01 0.0000000000000000e+00  -2.6448382400460186e+01 -5.0427430454441236e+01 0.0000000000000000e+00  -2.6794047237941339e+01 -5.1947436563522430e+01 0.0000000000000000e+00  -2.7135934129188691e+01 -5.3486279836899307e+01 0.0000000000000000e+00  -2.7474043100477903e+01 -5.5043753225167002e+01 0.0000000000000000e+00  -2.7808374176005120e+01 -5.6619649689889691e+01 0.0000000000000000e+00  -2.8138927377667926e+01 -5.8213762201440069e+01 0.0000000000000000e+00  -2.8465702725002316e+01 -5.9825883737225318e+01 0.0000000000000000e+00  -2.8788700235227939e+01 -6.1455807280233962e+01 0.0000000000000000e+00  -2.9107919923363088e+01 -6.3103325817856678e+01 0.0000000000000000e+00  -2.9423361802381301e+01 -6.4768232340931846e+01 0.0000000000000000e+00  -2.9735025883390239e+01 -6.6450319842977621e+01 0.0000000000000000e+00  -3.0042912175817868e+01 -6.8149381319581167e+01 0.0000000000000000e+00  -3.0347020687595599e+01 -6.9865209767911139e+01 0.0000000000000000e+00  -3.0647351425331372e+01 -7.1597598186336626e+01 0.0000000000000000e+00  -3.0943904394468458e+01 -7.3346339574126816e+01 0.0000000000000000e+00  -3.1236679599426793e+01 -7.5111226931217374e+01 0.0000000000000000e+00  -3.1525677043726080e+01 -7.6892053258030629e+01 0.0000000000000000e+00  -3.1810896730088917e+01 -7.8688611555338255e+01 0.0000000000000000e+00  -3.2092338660524419e+01 -8.0500694824153570e+01 0.0000000000000000e+00  -3.2370002836392089e+01 -8.2328096065648793e+01 0.0000000000000000e+00  -3.2643889258446642e+01 -8.4170608281087581e+01 0.0000000000000000e+00  -3.2913997926863672e+01 -8.6028024471768404e+01 0.0000000000000000e+00  -3.3180328841246293e+01 -8.7900137638973391e+01 0.0000000000000000e+00  -3.3442882000612968e+01 -8.9786740783913075e+01 0.0000000000000000e+00  -3.3701657403366816e+01 -9.1687626907668360e+01 0.0000000000000000e+00  -3.3956655047245697e+01 -9.3602589011115128e+01 0.0000000000000000e+00  -3.4207874929253450e+01 -9.5531420094831560e+01 0.0000000000000000e+00  -3.4455317045572301e+01 -9.7473913158980736e+01 0.0000000000000000e+00  -3.4698981391456051e+01 -9.9429861203153081e+01 0.0000000000000000e+00  -3.4938867961105110e+01 -1.0139905722616858e+02 0.0000000000000000e+00  -3.5174976747524589e+01 -1.0338129422581594e+02 0.0000000000000000e+00  -3.5407307742367522e+01 -1.0537636519852015e+02 0.0000000000000000e+00  -3.5635860935767049e+01 -1.0738406313892492e+02 0.0000000000000000e+00  -3.5860636316163280e+01 -1.0940418103935667e+02 0.0000000000000000e+00  -3.6081633870133288e+01 -1.1143651188915575e+02 0.0000000000000000e+00  -3.6298853582236958e+01 -1.1348084867384674e+02 0.0000000000000000e+00  -3.6512295434895009e+01 -1.1553698437410161e+02 0.0000000000000000e+00  -3.6721959408323698e+01 -1.1760471196446940e+02 0.0000000000000000e+00  -3.6927845480557302e+01 -1.1968382441181605e+02 0.0000000000000000e+00  -3.7129953627601907e+01 -1.2177411467342263e+02 0.0000000000000000e+00  -3.7328283823775777e+01 -1.2387537569468721e+02 0.0000000000000000e+00  -3.7522836042309137e+01 -1.2598740040634858e+02 0.0000000000000000e+00  -3.7713610256298644e+01 -1.2810998172117147e+02 0.0000000000000000e+00  -3.7900606440137373e+01 -1.3024291252999063e+02 0.0000000000000000e+00  -3.8083824571573565e+01 -1.3238598569703819e+02 0.0000000000000000e+00  -3.8263264634594037e+01 -1.3453899405445679e+02 0.0000000000000000e+00  -3.8438926623375075e+01 -1.3670173039589145e+02 0.0000000000000000e+00  -3.8610810547607230e+01 -1.3887398746908701e+02 0.0000000000000000e+00  -3.8778916439572100e+01 -1.4105555796739009e+02 0.0000000000000000e+00  -3.8943244363437074e+01 -1.4324623452010306e+02 0.0000000000000000e+00  -3.9103794427343168e+01 -1.4544580968166724e+02 0.0000000000000000e+00  -3.9260566798985039e+01 -1.4765407591967809e+02 0.0000000000000000e+00  -3.9413561725532922e+01 -1.4987082560184589e+02 0.0000000000000000e+00  -3.9562779558925605e+01 -1.5209585098210090e+02 0.0000000000000000e+00  -3.9708220787767324e+01 -1.5432894418617860e+02 0.0000000000000000e+00  -3.9849886077306948e+01 -1.5656989719724959e+02 0.0000000000000000e+00  -3.9987776319254159e+01 -1.5881850184238999e+02 0.0000000000000000e+00  -4.0121892693507966e+01 -1.6107454978106256e+02 0.0000000000000000e+00  -4.0252236744238708e+01 -1.6333783249723567e+02 0.0000000000000000e+00  -4.0378810473173033e+01 -1.6560814129733922e+02 0.0000000000000000e+00  -4.0501616453389573e+01 -1.6788526731706662e+02 0.0000000000000000e+00  -4.0620657967439207e+01 -1.7016900154096251e+02 0.0000000000000000e+00  -4.0735939174149237e+01 -1.7245913484002961e+02 0.0000000000000000e+00  -4.0847465309058265e+01 -1.7475545803414369e+02 0.0000000000000000e+00  -4.0955242924039396e+01 -1.7705776198806677e+02 0.0000000000000000e+00  -4.1059280172290983e+01 -1.7936583775237912e+02 0.0000000000000000e+00  -4.1159587145481829e+01 -1.8167947676380948e+02 0.0000000000000000e+00  -4.1256176270391130e+01 -1